#!/usr/bin/env python
# -*- coding: utf-8 -*-
# Time      : 2023/1/3 下午 04:38
# @Author   : ghost(fan.xia)
# @Email    : ghost.f.xia@mail.foxconn.com
# File      : dpi.py


import win32api
import win32con
import win32gui
import win32print


class WindowsCommon:
    """
    windows的一些函数
    """

    @staticmethod
    def getScreenResolution():
        """
        得到屏幕的真实分辨率
        :return:
        """
        sx = win32print.GetDeviceCaps(win32gui.GetDC(0), win32con.DESKTOPHORZRES)
        sy = win32print.GetDeviceCaps(win32gui.GetDC(0), win32con.DESKTOPVERTRES)
        return sx, sy

    @staticmethod
    def getScreenCurrent():
        """
        得到屏幕缩放后的分辨率
        :return:
        """
        sx = win32api.GetSystemMetrics(win32con.SM_CXSCREEN)
        sy = win32api.GetSystemMetrics(win32con.SM_CYSCREEN)
        return sx, sy

    def getScreenScaleRate(self):
        """
        得到当前屏幕的缩放比例
        :return:
        """
        screen_x, screen_y = self.getScreenResolution()
        current_x, current_y = self.getScreenCurrent()
        rate = round(screen_x / current_x, 2)
        return rate


if __name__ == '__main__':
    windows_common = WindowsCommon()
    print(WindowsCommon.getScreenCurrent())
    print(windows_common.getScreenResolution())
    print(windows_common.getScreenScaleRate())
